Position Data

4000 atoms
2 atom types

0.00 16.00 xlo xhi
0.00 16.00 ylo yhi
0.00 16.00 zlo zhi

Atoms

1 2 0.0 0.0 0.0
2 1 0.0 0.8 0.8
3 2 0.8 0.0 0.8
4 1 0.8 0.8 0.0
5 1 0.0 0.0 1.6
6 1 0.0 0.8 2.4000000000000004
7 2 0.8 0.0 2.4000000000000004
8 1 0.8 0.8 1.6
9 2 0.0 0.0 3.2
10 1 0.0 0.8 4.0
11 2 0.8 0.0 4.0
12 1 0.8 0.8 3.2
13 1 0.0 0.0 4.800000000000001
14 1 0.0 0.8 5.6000000000000005
15 1 0.8 0.0 5.6000000000000005
16 1 0.8 0.8 4.800000000000001
17 2 0.0 0.0 6.4
18 2 0.0 0.8 7.2
19 1 0.8 0.0 7.2
20 1 0.8 0.8 6.4
21 1 0.0 0.0 8.0
22 2 0.0 0.8 8.8
23 1 0.8 0.0 8.8
24 1 0.8 0.8 8.0
25 2 0.0 0.0 9.600000000000001
26 2 0.0 0.8 10.400000000000002
27 2 0.8 0.0 10.400000000000002
28 2 0.8 0.8 9.600000000000001
29 2 0.0 0.0 11.200000000000001
30 2 0.0 0.8 12.000000000000002
31 2 0.8 0.0 12.000000000000002
32 2 0.8 0.8 11.200000000000001
33 1 0.0 0.0 12.8
34 2 0.0 0.8 13.600000000000001
35 1 0.8 0.0 13.600000000000001
36 2 0.8 0.8 12.8
37 2 0.0 0.0 14.4
38 1 0.0 0.8 15.200000000000001
39 1 0.8 0.0 15.200000000000001
40 2 0.8 0.8 14.4
41 1 0.0 1.6 0.0
42 1 0.0 2.4000000000000004 0.8
43 1 0.8 1.6 0.8
44 2 0.8 2.4000000000000004 0.0
45 1 0.0 1.6 1.6
46 2 0.0 2.4000000000000004 2.4000000000000004
47 1 0.8 1.6 2.4000000000000004
48 2 0.8 2.4000000000000004 1.6
49 1 0.0 1.6 3.2
50 2 0.0 2.4000000000000004 4.0
51 2 0.8 1.6 4.0
52 1 0.8 2.4000000000000004 3.2
53 1 0.0 1.6 4.800000000000001
54 1 0.0 2.4000000000000004 5.6000000000000005
55 2 0.8 1.6 5.6000000000000005
56 1 0.8 2.4000000000000004 4.800000000000001
57 2 0.0 1.6 6.4
58 1 0.0 2.4000000000000004 7.2
59 2 0.8 1.6 7.2
60 2 0.8 2.4000000000000004 6.4
61 2 0.0 1.6 8.0
62 2 0.0 2.4000000000000004 8.8
63 1 0.8 1.6 8.8
64 2 0.8 2.4000000000000004 8.0
65 1 0.0 1.6 9.600000000000001
66 2 0.0 2.4000000000000004 10.400000000000002
67 1 0.8 1.6 10.400000000000002
68 2 0.8 2.4000000000000004 9.600000000000001
69 2 0.0 1.6 11.200000000000001
70 2 0.0 2.4000000000000004 12.000000000000002
71 2 0.8 1.6 12.000000000000002
72 2 0.8 2.4000000000000004 11.200000000000001
73 1 0.0 1.6 12.8
74 2 0.0 2.4000000000000004 13.600000000000001
75 1 0.8 1.6 13.600000000000001
76 1 0.8 2.4000000000000004 12.8
77 1 0.0 1.6 14.4
78 1 0.0 2.4000000000000004 15.200000000000001
79 1 0.8 1.6 15.200000000000001
80 1 0.8 2.4000000000000004 14.4
81 2 0.0 3.2 0.0
82 2 0.0 4.0 0.8
83 1 0.8 3.2 0.8
84 2 0.8 4.0 0.0
85 1 0.0 3.2 1.6
86 2 0.0 4.0 2.4000000000000004
87 2 0.8 3.2 2.4000000000000004
88 1 0.8 4.0 1.6
89 2 0.0 3.2 3.2
90 2 0.0 4.0 4.0
91 2 0.8 3.2 4.0
92 2 0.8 4.0 3.2
93 1 0.0 3.2 4.800000000000001
94 2 0.0 4.0 5.6000000000000005
95 1 0.8 3.2 5.6000000000000005
96 2 0.8 4.0 4.800000000000001
97 1 0.0 3.2 6.4
98 2 0.0 4.0 7.2
99 1 0.8 3.2 7.2
100 2 0.8 4.0 6.4
101 2 0.0 3.2 8.0
102 2 0.0 4.0 8.8
103 2 0.8 3.2 8.8
104 1 0.8 4.0 8.0
105 2 0.0 3.2 9.600000000000001
106 1 0.0 4.0 10.400000000000002
107 1 0.8 3.2 10.400000000000002
108 2 0.8 4.0 9.600000000000001
109 2 0.0 3.2 11.200000000000001
110 1 0.0 4.0 12.000000000000002
111 2 0.8 3.2 12.000000000000002
112 1 0.8 4.0 11.200000000000001
113 2 0.0 3.2 12.8
114 1 0.0 4.0 13.600000000000001
115 1 0.8 3.2 13.600000000000001
116 1 0.8 4.0 12.8
117 2 0.0 3.2 14.4
118 2 0.0 4.0 15.200000000000001
119 1 0.8 3.2 15.200000000000001
120 2 0.8 4.0 14.4
121 1 0.0 4.800000000000001 0.0
122 1 0.0 5.6000000000000005 0.8
123 1 0.8 4.800000000000001 0.8
124 1 0.8 5.6000000000000005 0.0
125 2 0.0 4.800000000000001 1.6
126 1 0.0 5.6000000000000005 2.4000000000000004
127 2 0.8 4.800000000000001 2.4000000000000004
128 2 0.8 5.6000000000000005 1.6
129 2 0.0 4.800000000000001 3.2
130 2 0.0 5.6000000000000005 4.0
131 1 0.8 4.800000000000001 4.0
132 1 0.8 5.6000000000000005 3.2
133 1 0.0 4.800000000000001 4.800000000000001
134 2 0.0 5.6000000000000005 5.6000000000000005
135 2 0.8 4.800000000000001 5.6000000000000005
136 1 0.8 5.6000000000000005 4.800000000000001
137 2 0.0 4.800000000000001 6.4
138 2 0.0 5.6000000000000005 7.2
139 1 0.8 4.800000000000001 7.2
140 2 0.8 5.6000000000000005 6.4
141 2 0.0 4.800000000000001 8.0
142 1 0.0 5.6000000000000005 8.8
143 2 0.8 4.800000000000001 8.8
144 2 0.8 5.6000000000000005 8.0
145 2 0.0 4.800000000000001 9.600000000000001
146 2 0.0 5.6000000000000005 10.400000000000002
147 1 0.8 4.800000000000001 10.400000000000002
148 1 0.8 5.6000000000000005 9.600000000000001
149 1 0.0 4.800000000000001 11.200000000000001
150 1 0.0 5.6000000000000005 12.000000000000002
151 1 0.8 4.800000000000001 12.000000000000002
152 1 0.8 5.6000000000000005 11.200000000000001
153 1 0.0 4.800000000000001 12.8
154 1 0.0 5.6000000000000005 13.600000000000001
155 2 0.8 4.800000000000001 13.600000000000001
156 2 0.8 5.6000000000000005 12.8
157 2 0.0 4.800000000000001 14.4
158 1 0.0 5.6000000000000005 15.200000000000001
159 1 0.8 4.800000000000001 15.200000000000001
160 1 0.8 5.6000000000000005 14.4
161 1 0.0 6.4 0.0
162 1 0.0 7.2 0.8
163 1 0.8 6.4 0.8
164 1 0.8 7.2 0.0
165 2 0.0 6.4 1.6
166 1 0.0 7.2 2.4000000000000004
167 1 0.8 6.4 2.4000000000000004
168 2 0.8 7.2 1.6
169 1 0.0 6.4 3.2
170 1 0.0 7.2 4.0
171 2 0.8 6.4 4.0
172 1 0.8 7.2 3.2
173 1 0.0 6.4 4.800000000000001
174 2 0.0 7.2 5.6000000000000005
175 2 0.8 6.4 5.6000000000000005
176 1 0.8 7.2 4.800000000000001
177 1 0.0 6.4 6.4
178 1 0.0 7.2 7.2
179 2 0.8 6.4 7.2
180 1 0.8 7.2 6.4
181 2 0.0 6.4 8.0
182 2 0.0 7.2 8.8
183 1 0.8 6.4 8.8
184 1 0.8 7.2 8.0
185 1 0.0 6.4 9.600000000000001
186 1 0.0 7.2 10.400000000000002
187 2 0.8 6.4 10.400000000000002
188 2 0.8 7.2 9.600000000000001
189 2 0.0 6.4 11.200000000000001
190 1 0.0 7.2 12.000000000000002
191 1 0.8 6.4 12.000000000000002
192 1 0.8 7.2 11.200000000000001
193 1 0.0 6.4 12.8
194 2 0.0 7.2 13.600000000000001
195 1 0.8 6.4 13.600000000000001
196 2 0.8 7.2 12.8
197 2 0.0 6.4 14.4
198 1 0.0 7.2 15.200000000000001
199 2 0.8 6.4 15.200000000000001
200 2 0.8 7.2 14.4
201 2 0.0 8.0 0.0
202 2 0.0 8.8 0.8
203 2 0.8 8.0 0.8
204 2 0.8 8.8 0.0
205 1 0.0 8.0 1.6
206 2 0.0 8.8 2.4000000000000004
207 2 0.8 8.0 2.4000000000000004
208 1 0.8 8.8 1.6
209 1 0.0 8.0 3.2
210 2 0.0 8.8 4.0
211 2 0.8 8.0 4.0
212 2 0.8 8.8 3.2
213 2 0.0 8.0 4.800000000000001
214 2 0.0 8.8 5.6000000000000005
215 2 0.8 8.0 5.6000000000000005
216 2 0.8 8.8 4.800000000000001
217 1 0.0 8.0 6.4
218 1 0.0 8.8 7.2
219 2 0.8 8.0 7.2
220 2 0.8 8.8 6.4
221 1 0.0 8.0 8.0
222 1 0.0 8.8 8.8
223 2 0.8 8.0 8.8
224 1 0.8 8.8 8.0
225 2 0.0 8.0 9.600000000000001
226 2 0.0 8.8 10.400000000000002
227 1 0.8 8.0 10.400000000000002
228 1 0.8 8.8 9.600000000000001
229 2 0.0 8.0 11.200000000000001
230 2 0.0 8.8 12.000000000000002
231 2 0.8 8.0 12.000000000000002
232 2 0.8 8.8 11.200000000000001
233 2 0.0 8.0 12.8
234 1 0.0 8.8 13.600000000000001
235 1 0.8 8.0 13.600000000000001
236 1 0.8 8.8 12.8
237 1 0.0 8.0 14.4
238 2 0.0 8.8 15.200000000000001
239 2 0.8 8.0 15.200000000000001
240 2 0.8 8.8 14.4
241 1 0.0 9.600000000000001 0.0
242 2 0.0 10.400000000000002 0.8
243 2 0.8 9.600000000000001 0.8
244 1 0.8 10.400000000000002 0.0
245 1 0.0 9.600000000000001 1.6
246 1 0.0 10.400000000000002 2.4000000000000004
247 2 0.8 9.600000000000001 2.4000000000000004
248 1 0.8 10.400000000000002 1.6
249 2 0.0 9.600000000000001 3.2
250 1 0.0 10.400000000000002 4.0
251 1 0.8 9.600000000000001 4.0
252 1 0.8 10.400000000000002 3.2
253 1 0.0 9.600000000000001 4.800000000000001
254 1 0.0 10.400000000000002 5.6000000000000005
255 2 0.8 9.600000000000001 5.6000000000000005
256 2 0.8 10.400000000000002 4.800000000000001
257 1 0.0 9.600000000000001 6.4
258 1 0.0 10.400000000000002 7.2
259 1 0.8 9.600000000000001 7.2
260 1 0.8 10.400000000000002 6.4
261 1 0.0 9.600000000000001 8.0
262 2 0.0 10.400000000000002 8.8
263 2 0.8 9.600000000000001 8.8
264 2 0.8 10.400000000000002 8.0
265 1 0.0 9.600000000000001 9.600000000000001
266 1 0.0 10.400000000000002 10.400000000000002
267 1 0.8 9.600000000000001 10.400000000000002
268 2 0.8 10.400000000000002 9.600000000000001
269 1 0.0 9.600000000000001 11.200000000000001
270 1 0.0 10.400000000000002 12.000000000000002
271 2 0.8 9.600000000000001 12.000000000000002
272 1 0.8 10.400000000000002 11.200000000000001
273 1 0.0 9.600000000000001 12.8
274 1 0.0 10.400000000000002 13.600000000000001
275 1 0.8 9.600000000000001 13.600000000000001
276 2 0.8 10.400000000000002 12.8
277 1 0.0 9.600000000000001 14.4
278 1 0.0 10.400000000000002 15.200000000000001
279 1 0.8 9.600000000000001 15.200000000000001
280 2 0.8 10.400000000000002 14.4
281 2 0.0 11.200000000000001 0.0
282 1 0.0 12.000000000000002 0.8
283 2 0.8 11.200000000000001 0.8
284 2 0.8 12.000000000000002 0.0
285 1 0.0 11.200000000000001 1.6
286 1 0.0 12.000000000000002 2.4000000000000004
287 2 0.8 11.200000000000001 2.4000000000000004
288 1 0.8 12.000000000000002 1.6
289 2 0.0 11.200000000000001 3.2
290 2 0.0 12.000000000000002 4.0
291 2 0.8 11.200000000000001 4.0
292 2 0.8 12.000000000000002 3.2
293 2 0.0 11.200000000000001 4.800000000000001
294 2 0.0 12.000000000000002 5.6000000000000005
295 1 0.8 11.200000000000001 5.6000000000000005
296 1 0.8 12.000000000000002 4.800000000000001
297 1 0.0 11.200000000000001 6.4
298 2 0.0 12.000000000000002 7.2
299 1 0.8 11.200000000000001 7.2
300 1 0.8 12.000000000000002 6.4
301 2 0.0 11.200000000000001 8.0
302 1 0.0 12.000000000000002 8.8
303 1 0.8 11.200000000000001 8.8
304 1 0.8 12.000000000000002 8.0
305 2 0.0 11.200000000000001 9.600000000000001
306 2 0.0 12.000000000000002 10.400000000000002
307 1 0.8 11.200000000000001 10.400000000000002
308 2 0.8 12.000000000000002 9.600000000000001
309 1 0.0 11.200000000000001 11.200000000000001
310 1 0.0 12.000000000000002 12.000000000000002
311 2 0.8 11.200000000000001 12.000000000000002
312 1 0.8 12.000000000000002 11.200000000000001
313 2 0.0 11.200000000000001 12.8
314 1 0.0 12.000000000000002 13.600000000000001
315 2 0.8 11.200000000000001 13.600000000000001
316 2 0.8 12.000000000000002 12.8
317 1 0.0 11.200000000000001 14.4
318 1 0.0 12.000000000000002 15.200000000000001
319 1 0.8 11.200000000000001 15.200000000000001
320 2 0.8 12.000000000000002 14.4
321 2 0.0 12.8 0.0
322 2 0.0 13.600000000000001 0.8
323 1 0.8 12.8 0.8
324 2 0.8 13.600000000000001 0.0
325 2 0.0 12.8 1.6
326 2 0.0 13.600000000000001 2.4000000000000004
327 2 0.8 12.8 2.4000000000000004
328 2 0.8 13.600000000000001 1.6
329 1 0.0 12.8 3.2
330 1 0.0 13.600000000000001 4.0
331 1 0.8 12.8 4.0
332 2 0.8 13.600000000000001 3.2
333 2 0.0 12.8 4.800000000000001
334 1 0.0 13.600000000000001 5.6000000000000005
335 2 0.8 12.8 5.6000000000000005
336 1 0.8 13.600000000000001 4.800000000000001
337 1 0.0 12.8 6.4
338 1 0.0 13.600000000000001 7.2
339 2 0.8 12.8 7.2
340 2 0.8 13.600000000000001 6.4
341 2 0.0 12.8 8.0
342 2 0.0 13.600000000000001 8.8
343 2 0.8 12.8 8.8
344 1 0.8 13.600000000000001 8.0
345 1 0.0 12.8 9.600000000000001
346 2 0.0 13.600000000000001 10.400000000000002
347 1 0.8 12.8 10.400000000000002
348 2 0.8 13.600000000000001 9.600000000000001
349 1 0.0 12.8 11.200000000000001
350 1 0.0 13.600000000000001 12.000000000000002
351 2 0.8 12.8 12.000000000000002
352 2 0.8 13.600000000000001 11.200000000000001
353 2 0.0 12.8 12.8
354 2 0.0 13.600000000000001 13.600000000000001
355 1 0.8 12.8 13.600000000000001
356 1 0.8 13.600000000000001 12.8
357 1 0.0 12.8 14.4
358 2 0.0 13.600000000000001 15.200000000000001
359 1 0.8 12.8 15.200000000000001
360 1 0.8 13.600000000000001 14.4
361 1 0.0 14.4 0.0
362 1 0.0 15.200000000000001 0.8
363 1 0.8 14.4 0.8
364 2 0.8 15.200000000000001 0.0
365 2 0.0 14.4 1.6
366 2 0.0 15.200000000000001 2.4000000000000004
367 2 0.8 14.4 2.4000000000000004
368 2 0.8 15.200000000000001 1.6
369 2 0.0 14.4 3.2
370 1 0.0 15.200000000000001 4.0
371 1 0.8 14.4 4.0
372 1 0.8 15.200000000000001 3.2
373 2 0.0 14.4 4.800000000000001
374 2 0.0 15.200000000000001 5.6000000000000005
375 2 0.8 14.4 5.6000000000000005
376 1 0.8 15.200000000000001 4.800000000000001
377 2 0.0 14.4 6.4
378 1 0.0 15.200000000000001 7.2
379 1 0.8 14.4 7.2
380 2 0.8 15.200000000000001 6.4
381 2 0.0 14.4 8.0
382 1 0.0 15.200000000000001 8.8
383 1 0.8 14.4 8.8
384 2 0.8 15.200000000000001 8.0
385 2 0.0 14.4 9.600000000000001
386 2 0.0 15.200000000000001 10.400000000000002
387 1 0.8 14.4 10.400000000000002
388 2 0.8 15.200000000000001 9.600000000000001
389 2 0.0 14.4 11.200000000000001
390 1 0.0 15.200000000000001 12.000000000000002
391 1 0.8 14.4 12.000000000000002
392 1 0.8 15.200000000000001 11.200000000000001
393 2 0.0 14.4 12.8
394 1 0.0 15.200000000000001 13.600000000000001
395 2 0.8 14.4 13.600000000000001
396 2 0.8 15.200000000000001 12.8
397 1 0.0 14.4 14.4
398 1 0.0 15.200000000000001 15.200000000000001
399 1 0.8 14.4 15.200000000000001
400 1 0.8 15.200000000000001 14.4
401 2 1.6 0.0 0.0
402 2 1.6 0.8 0.8
403 2 2.4000000000000004 0.0 0.8
404 2 2.4000000000000004 0.8 0.0
405 2 1.6 0.0 1.6
406 1 1.6 0.8 2.4000000000000004
407 2 2.4000000000000004 0.0 2.4000000000000004
408 2 2.4000000000000004 0.8 1.6
409 1 1.6 0.0 3.2
410 1 1.6 0.8 4.0
411 2 2.4000000000000004 0.0 4.0
412 1 2.4000000000000004 0.8 3.2
413 2 1.6 0.0 4.800000000000001
414 2 1.6 0.8 5.6000000000000005
415 2 2.4000000000000004 0.0 5.6000000000000005
416 2 2.4000000000000004 0.8 4.800000000000001
417 1 1.6 0.0 6.4
418 2 1.6 0.8 7.2
419 2 2.4000000000000004 0.0 7.2
420 1 2.4000000000000004 0.8 6.4
421 1 1.6 0.0 8.0
422 2 1.6 0.8 8.8
423 2 2.4000000000000004 0.0 8.8
424 2 2.4000000000000004 0.8 8.0
425 1 1.6 0.0 9.600000000000001
426 2 1.6 0.8 10.400000000000002
427 2 2.4000000000000004 0.0 10.400000000000002
428 2 2.4000000000000004 0.8 9.600000000000001
429 2 1.6 0.0 11.200000000000001
430 2 1.6 0.8 12.000000000000002
431 2 2.4000000000000004 0.0 12.000000000000002
432 2 2.4000000000000004 0.8 11.200000000000001
433 1 1.6 0.0 12.8
434 2 1.6 0.8 13.600000000000001
435 1 2.4000000000000004 0.0 13.600000000000001
436 2 2.4000000000000004 0.8 12.8
437 1 1.6 0.0 14.4
438 1 1.6 0.8 15.200000000000001
439 1 2.4000000000000004 0.0 15.200000000000001
440 1 2.4000000000000004 0.8 14.4
441 2 1.6 1.6 0.0
442 2 1.6 2.4000000000000004 0.8
443 1 2.4000000000000004 1.6 0.8
444 2 2.4000000000000004 2.4000000000000004 0.0
445 2 1.6 1.6 1.6
446 1 1.6 2.4000000000000004 2.4000000000000004
447 1 2.4000000000000004 1.6 2.4000000000000004
448 1 2.4000000000000004 2.4000000000000004 1.6
449 1 1.6 1.6 3.2
450 2 1.6 2.4000000000000004 4.0
451 1 2.4000000000000004 1.6 4.0
452 2 2.4000000000000004 2.4000000000000004 3.2
453 1 1.6 1.6 4.800000000000001
454 1 1.6 2.4000000000000004 5.6000000000000005
455 1 2.4000000000000004 1.6 5.6000000000000005
456 2 2.4000000000000004 2.4000000000000004 4.800000000000001
457 1 1.6 1.6 6.4
458 2 1.6 2.4000000000000004 7.2
459 1 2.4000000000000004 1.6 7.2
460 1 2.4000000000000004 2.4000000000000004 6.4
461 2 1.6 1.6 8.0
462 1 1.6 2.4000000000000004 8.8
463 1 2.4000000000000004 1.6 8.8
464 1 2.4000000000000004 2.4000000000000004 8.0
465 2 1.6 1.6 9.600000000000001
466 2 1.6 2.4000000000000004 10.400000000000002
467 2 2.4000000000000004 1.6 10.400000000000002
468 1 2.4000000000000004 2.4000000000000004 9.600000000000001
469 1 1.6 1.6 11.200000000000001
470 1 1.6 2.4000000000000004 12.000000000000002
471 2 2.4000000000000004 1.6 12.000000000000002
472 2 2.4000000000000004 2.4000000000000004 11.200000000000001
473 2 1.6 1.6 12.8
474 1 1.6 2.4000000000000004 13.600000000000001
475 2 2.4000000000000004 1.6 13.600000000000001
476 2 2.4000000000000004 2.4000000000000004 12.8
477 1 1.6 1.6 14.4
478 1 1.6 2.4000000000000004 15.200000000000001
479 2 2.4000000000000004 1.6 15.200000000000001
480 2 2.4000000000000004 2.4000000000000004 14.4
481 1 1.6 3.2 0.0
482 1 1.6 4.0 0.8
483 1 2.4000000000000004 3.2 0.8
484 2 2.4000000000000004 4.0 0.0
485 1 1.6 3.2 1.6
486 2 1.6 4.0 2.4000000000000004
487 2 2.4000000000000004 3.2 2.4000000000000004
488 2 2.4000000000000004 4.0 1.6
489 1 1.6 3.2 3.2
490 2 1.6 4.0 4.0
491 2 2.4000000000000004 3.2 4.0
492 2 2.4000000000000004 4.0 3.2
493 2 1.6 3.2 4.800000000000001
494 2 1.6 4.0 5.6000000000000005
495 1 2.4000000000000004 3.2 5.6000000000000005
496 1 2.4000000000000004 4.0 4.800000000000001
497 2 1.6 3.2 6.4
498 2 1.6 4.0 7.2
499 1 2.4000000000000004 3.2 7.2
500 1 2.4000000000000004 4.0 6.4
501 1 1.6 3.2 8.0
502 2 1.6 4.0 8.8
503 1 2.4000000000000004 3.2 8.8
504 2 2.4000000000000004 4.0 8.0
505 1 1.6 3.2 9.600000000000001
506 2 1.6 4.0 10.400000000000002
507 2 2.4000000000000004 3.2 10.400000000000002
508 1 2.4000000000000004 4.0 9.600000000000001
509 2 1.6 3.2 11.200000000000001
510 1 1.6 4.0 12.000000000000002
511 2 2.4000000000000004 3.2 12.000000000000002
512 2 2.4000000000000004 4.0 11.200000000000001
513 1 1.6 3.2 12.8
514 1 1.6 4.0 13.600000000000001
515 1 2.4000000000000004 3.2 13.600000000000001
516 1 2.4000000000000004 4.0 12.8
517 2 1.6 3.2 14.4
518 2 1.6 4.0 15.200000000000001
519 1 2.4000000000000004 3.2 15.200000000000001
520 1 2.4000000000000004 4.0 14.4
521 2 1.6 4.800000000000001 0.0
522 2 1.6 5.6000000000000005 0.8
523 1 2.4000000000000004 4.800000000000001 0.8
524 1 2.4000000000000004 5.6000000000000005 0.0
525 1 1.6 4.800000000000001 1.6
526 1 1.6 5.6000000000000005 2.4000000000000004
527 1 2.4000000000000004 4.800000000000001 2.4000000000000004
528 2 2.4000000000000004 5.6000000000000005 1.6
529 1 1.6 4.800000000000001 3.2
530 2 1.6 5.6000000000000005 4.0
531 1 2.4000000000000004 4.800000000000001 4.0
532 2 2.4000000000000004 5.6000000000000005 3.2
533 2 1.6 4.800000000000001 4.800000000000001
534 1 1.6 5.6000000000000005 5.6000000000000005
535 1 2.4000000000000004 4.800000000000001 5.6000000000000005
536 1 2.4000000000000004 5.6000000000000005 4.800000000000001
537 2 1.6 4.800000000000001 6.4
538 1 1.6 5.6000000000000005 7.2
539 1 2.4000000000000004 4.800000000000001 7.2
540 2 2.4000000000000004 5.6000000000000005 6.4
541 2 1.6 4.800000000000001 8.0
542 2 1.6 5.6000000000000005 8.8
543 2 2.4000000000000004 4.800000000000001 8.8
544 1 2.4000000000000004 5.6000000000000005 8.0
545 1 1.6 4.800000000000001 9.600000000000001
546 1 1.6 5.6000000000000005 10.400000000000002
547 2 2.4000000000000004 4.800000000000001 10.400000000000002
548 1 2.4000000000000004 5.6000000000000005 9.600000000000001
549 2 1.6 4.800000000000001 11.200000000000001
550 1 1.6 5.6000000000000005 12.000000000000002
551 2 2.4000000000000004 4.800000000000001 12.000000000000002
552 2 2.4000000000000004 5.6000000000000005 11.200000000000001
553 1 1.6 4.800000000000001 12.8
554 2 1.6 5.6000000000000005 13.600000000000001
555 2 2.4000000000000004 4.800000000000001 13.600000000000001
556 1 2.4000000000000004 5.6000000000000005 12.8
557 2 1.6 4.800000000000001 14.4
558 1 1.6 5.6000000000000005 15.200000000000001
559 2 2.4000000000000004 4.800000000000001 15.200000000000001
560 2 2.4000000000000004 5.6000000000000005 14.4
561 2 1.6 6.4 0.0
562 1 1.6 7.2 0.8
563 1 2.4000000000000004 6.4 0.8
564 2 2.4000000000000004 7.2 0.0
565 1 1.6 6.4 1.6
566 2 1.6 7.2 2.4000000000000004
567 1 2.4000000000000004 6.4 2.4000000000000004
568 2 2.4000000000000004 7.2 1.6
569 2 1.6 6.4 3.2
570 1 1.6 7.2 4.0
571 1 2.4000000000000004 6.4 4.0
572 1 2.4000000000000004 7.2 3.2
573 2 1.6 6.4 4.800000000000001
574 1 1.6 7.2 5.6000000000000005
575 1 2.4000000000000004 6.4 5.6000000000000005
576 2 2.4000000000000004 7.2 4.800000000000001
577 1 1.6 6.4 6.4
578 2 1.6 7.2 7.2
579 1 2.4000000000000004 6.4 7.2
580 2 2.4000000000000004 7.2 6.4
581 1 1.6 6.4 8.0
582 2 1.6 7.2 8.8
583 1 2.4000000000000004 6.4 8.8
584 2 2.4000000000000004 7.2 8.0
585 2 1.6 6.4 9.600000000000001
586 1 1.6 7.2 10.400000000000002
587 1 2.4000000000000004 6.4 10.400000000000002
588 2 2.4000000000000004 7.2 9.600000000000001
589 1 1.6 6.4 11.200000000000001
590 2 1.6 7.2 12.000000000000002
591 1 2.4000000000000004 6.4 12.000000000000002
592 1 2.4000000000000004 7.2 11.200000000000001
593 2 1.6 6.4 12.8
594 1 1.6 7.2 13.600000000000001
595 1 2.4000000000000004 6.4 13.600000000000001
596 2 2.4000000000000004 7.2 12.8
597 1 1.6 6.4 14.4
598 1 1.6 7.2 15.200000000000001
599 2 2.4000000000000004 6.4 15.200000000000001
600 1 2.4000000000000004 7.2 14.4
601 1 1.6 8.0 0.0
602 2 1.6 8.8 0.8
603 2 2.4000000000000004 8.0 0.8
604 1 2.4000000000000004 8.8 0.0
605 1 1.6 8.0 1.6
606 2 1.6 8.8 2.4000000000000004
607 1 2.4000000000000004 8.0 2.4000000000000004
608 2 2.4000000000000004 8.8 1.6
609 2 1.6 8.0 3.2
610 1 1.6 8.8 4.0
611 1 2.4000000000000004 8.0 4.0
612 2 2.4000000000000004 8.8 3.2
613 1 1.6 8.0 4.800000000000001
614 1 1.6 8.8 5.6000000000000005
615 2 2.4000000000000004 8.0 5.6000000000000005
616 1 2.4000000000000004 8.8 4.800000000000001
617 1 1.6 8.0 6.4
618 2 1.6 8.8 7.2
619 2 2.4000000000000004 8.0 7.2
620 1 2.4000000000000004 8.8 6.4
621 2 1.6 8.0 8.0
622 2 1.6 8.8 8.8
623 2 2.4000000000000004 8.0 8.8
624 1 2.4000000000000004 8.8 8.0
625 2 1.6 8.0 9.600000000000001
626 2 1.6 8.8 10.400000000000002
627 1 2.4000000000000004 8.0 10.400000000000002
628 2 2.4000000000000004 8.8 9.600000000000001
629 2 1.6 8.0 11.200000000000001
630 1 1.6 8.8 12.000000000000002
631 1 2.4000000000000004 8.0 12.000000000000002
632 1 2.4000000000000004 8.8 11.200000000000001
633 2 1.6 8.0 12.8
634 1 1.6 8.8 13.600000000000001
635 2 2.4000000000000004 8.0 13.600000000000001
636 2 2.4000000000000004 8.8 12.8
637 2 1.6 8.0 14.4
638 2 1.6 8.8 15.200000000000001
639 1 2.4000000000000004 8.0 15.200000000000001
640 2 2.4000000000000004 8.8 14.4
641 1 1.6 9.600000000000001 0.0
642 1 1.6 10.400000000000002 0.8
643 2 2.4000000000000004 9.600000000000001 0.8
644 2 2.4000000000000004 10.400000000000002 0.0
645 1 1.6 9.600000000000001 1.6
646 2 1.6 10.400000000000002 2.4000000000000004
647 1 2.4000000000000004 9.600000000000001 2.4000000000000004
648 1 2.4000000000000004 10.400000000000002 1.6
649 2 1.6 9.600000000000001 3.2
650 2 1.6 10.400000000000002 4.0
651 2 2.4000000000000004 9.600000000000001 4.0
652 2 2.4000000000000004 10.400000000000002 3.2
653 1 1.6 9.600000000000001 4.800000000000001
654 2 1.6 10.400000000000002 5.6000000000000005
655 2 2.4000000000000004 9.600000000000001 5.6000000000000005
656 2 2.4000000000000004 10.400000000000002 4.800000000000001
657 1 1.6 9.600000000000001 6.4
658 1 1.6 10.400000000000002 7.2
659 2 2.4000000000000004 9.600000000000001 7.2
660 2 2.4000000000000004 10.400000000000002 6.4
661 2 1.6 9.600000000000001 8.0
662 2 1.6 10.400000000000002 8.8
663 1 2.4000000000000004 9.600000000000001 8.8
664 1 2.4000000000000004 10.400000000000002 8.0
665 1 1.6 9.600000000000001 9.600000000000001
666 1 1.6 10.400000000000002 10.400000000000002
667 1 2.4000000000000004 9.600000000000001 10.400000000000002
668 1 2.4000000000000004 10.400000000000002 9.600000000000001
669 1 1.6 9.600000000000001 11.200000000000001
670 1 1.6 10.400000000000002 12.000000000000002
671 2 2.4000000000000004 9.600000000000001 12.000000000000002
672 1 2.4000000000000004 10.400000000000002 11.200000000000001
673 2 1.6 9.600000000000001 12.8
674 1 1.6 10.400000000000002 13.600000000000001
675 1 2.4000000000000004 9.600000000000001 13.600000000000001
676 1 2.4000000000000004 10.400000000000002 12.8
677 2 1.6 9.600000000000001 14.4
678 1 1.6 10.400000000000002 15.200000000000001
679 2 2.4000000000000004 9.600000000000001 15.200000000000001
680 2 2.4000000000000004 10.400000000000002 14.4
681 1 1.6 11.200000000000001 0.0
682 1 1.6 12.000000000000002 0.8
683 1 2.4000000000000004 11.200000000000001 0.8
684 2 2.4000000000000004 12.000000000000002 0.0
685 2 1.6 11.200000000000001 1.6
686 1 1.6 12.000000000000002 2.4000000000000004
687 2 2.4000000000000004 11.200000000000001 2.4000000000000004
688 1 2.4000000000000004 12.000000000000002 1.6
689 2 1.6 11.200000000000001 3.2
690 2 1.6 12.000000000000002 4.0
691 1 2.4000000000000004 11.200000000000001 4.0
692 2 2.4000000000000004 12.000000000000002 3.2
693 1 1.6 11.200000000000001 4.800000000000001
694 2 1.6 12.000000000000002 5.6000000000000005
695 1 2.4000000000000004 11.200000000000001 5.6000000000000005
696 2 2.4000000000000004 12.000000000000002 4.800000000000001
697 2 1.6 11.200000000000001 6.4
698 2 1.6 12.000000000000002 7.2
699 1 2.4000000000000004 11.200000000000001 7.2
700 2 2.4000000000000004 12.000000000000002 6.4
701 2 1.6 11.200000000000001 8.0
702 1 1.6 12.000000000000002 8.8
703 2 2.4000000000000004 11.200000000000001 8.8
704 1 2.4000000000000004 12.000000000000002 8.0
705 2 1.6 11.200000000000001 9.600000000000001
706 1 1.6 12.000000000000002 10.400000000000002
707 2 2.4000000000000004 11.200000000000001 10.400000000000002
708 1 2.4000000000000004 12.000000000000002 9.600000000000001
709 2 1.6 11.200000000000001 11.200000000000001
710 1 1.6 12.000000000000002 12.000000000000002
711 2 2.4000000000000004 11.200000000000001 12.000000000000002
712 1 2.4000000000000004 12.000000000000002 11.200000000000001
713 2 1.6 11.200000000000001 12.8
714 1 1.6 12.000000000000002 13.600000000000001
715 1 2.4000000000000004 11.200000000000001 13.600000000000001
716 1 2.4000000000000004 12.000000000000002 12.8
717 1 1.6 11.200000000000001 14.4
718 2 1.6 12.000000000000002 15.200000000000001
719 1 2.4000000000000004 11.200000000000001 15.200000000000001
720 2 2.4000000000000004 12.000000000000002 14.4
721 2 1.6 12.8 0.0
722 2 1.6 13.600000000000001 0.8
723 1 2.4000000000000004 12.8 0.8
724 2 2.4000000000000004 13.600000000000001 0.0
725 2 1.6 12.8 1.6
726 1 1.6 13.600000000000001 2.4000000000000004
727 1 2.4000000000000004 12.8 2.4000000000000004
728 2 2.4000000000000004 13.600000000000001 1.6
729 1 1.6 12.8 3.2
730 2 1.6 13.600000000000001 4.0
731 2 2.4000000000000004 12.8 4.0
732 2 2.4000000000000004 13.600000000000001 3.2
733 1 1.6 12.8 4.800000000000001
734 2 1.6 13.600000000000001 5.6000000000000005
735 1 2.4000000000000004 12.8 5.6000000000000005
736 1 2.4000000000000004 13.600000000000001 4.800000000000001
737 1 1.6 12.8 6.4
738 2 1.6 13.600000000000001 7.2
739 1 2.4000000000000004 12.8 7.2
740 1 2.4000000000000004 13.600000000000001 6.4
741 1 1.6 12.8 8.0
742 1 1.6 13.600000000000001 8.8
743 2 2.4000000000000004 12.8 8.8
744 2 2.4000000000000004 13.600000000000001 8.0
745 1 1.6 12.8 9.600000000000001
746 1 1.6 13.600000000000001 10.400000000000002
747 2 2.4000000000000004 12.8 10.400000000000002
748 2 2.4000000000000004 13.600000000000001 9.600000000000001
749 2 1.6 12.8 11.200000000000001
750 2 1.6 13.600000000000001 12.000000000000002
751 2 2.4000000000000004 12.8 12.000000000000002
752 1 2.4000000000000004 13.600000000000001 11.200000000000001
753 1 1.6 12.8 12.8
754 1 1.6 13.600000000000001 13.600000000000001
755 1 2.4000000000000004 12.8 13.600000000000001
756 2 2.4000000000000004 13.600000000000001 12.8
757 1 1.6 12.8 14.4
758 1 1.6 13.600000000000001 15.200000000000001
759 2 2.4000000000000004 12.8 15.200000000000001
760 1 2.4000000000000004 13.600000000000001 14.4
761 1 1.6 14.4 0.0
762 1 1.6 15.200000000000001 0.8
763 1 2.4000000000000004 14.4 0.8
764 2 2.4000000000000004 15.200000000000001 0.0
765 1 1.6 14.4 1.6
766 2 1.6 15.200000000000001 2.4000000000000004
767 2 2.4000000000000004 14.4 2.4000000000000004
768 2 2.4000000000000004 15.200000000000001 1.6
769 2 1.6 14.4 3.2
770 1 1.6 15.200000000000001 4.0
771 1 2.4000000000000004 14.4 4.0
772 1 2.4000000000000004 15.200000000000001 3.2
773 1 1.6 14.4 4.800000000000001
774 2 1.6 15.200000000000001 5.6000000000000005
775 1 2.4000000000000004 14.4 5.6000000000000005
776 1 2.4000000000000004 15.200000000000001 4.800000000000001
777 2 1.6 14.4 6.4
778 1 1.6 15.200000000000001 7.2
779 1 2.4000000000000004 14.4 7.2
780 1 2.4000000000000004 15.200000000000001 6.4
781 2 1.6 14.4 8.0
782 2 1.6 15.200000000000001 8.8
783 1 2.4000000000000004 14.4 8.8
784 1 2.4000000000000004 15.200000000000001 8.0
785 1 1.6 14.4 9.600000000000001
786 1 1.6 15.200000000000001 10.400000000000002
787 1 2.4000000000000004 14.4 10.400000000000002
788 1 2.4000000000000004 15.200000000000001 9.600000000000001
789 2 1.6 14.4 11.200000000000001
790 2 1.6 15.200000000000001 12.000000000000002
791 2 2.4000000000000004 14.4 12.000000000000002
792 1 2.4000000000000004 15.200000000000001 11.200000000000001
793 1 1.6 14.4 12.8
794 2 1.6 15.200000000000001 13.600000000000001
795 1 2.4000000000000004 14.4 13.600000000000001
796 1 2.4000000000000004 15.200000000000001 12.8
797 2 1.6 14.4 14.4
798 2 1.6 15.200000000000001 15.200000000000001
799 1 2.4000000000000004 14.4 15.200000000000001
800 1 2.4000000000000004 15.200000000000001 14.4
801 1 3.2 0.0 0.0
802 2 3.2 0.8 0.8
803 1 4.0 0.0 0.8
804 2 4.0 0.8 0.0
805 1 3.2 0.0 1.6
806 2 3.2 0.8 2.4000000000000004
807 1 4.0 0.0 2.4000000000000004
808 2 4.0 0.8 1.6
809 2 3.2 0.0 3.2
810 1 3.2 0.8 4.0
811 1 4.0 0.0 4.0
812 1 4.0 0.8 3.2
813 2 3.2 0.0 4.800000000000001
814 1 3.2 0.8 5.6000000000000005
815 1 4.0 0.0 5.6000000000000005
816 1 4.0 0.8 4.800000000000001
817 2 3.2 0.0 6.4
818 2 3.2 0.8 7.2
819 1 4.0 0.0 7.2
820 2 4.0 0.8 6.4
821 1 3.2 0.0 8.0
822 1 3.2 0.8 8.8
823 1 4.0 0.0 8.8
824 1 4.0 0.8 8.0
825 2 3.2 0.0 9.600000000000001
826 2 3.2 0.8 10.400000000000002
827 1 4.0 0.0 10.400000000000002
828 1 4.0 0.8 9.600000000000001
829 1 3.2 0.0 11.200000000000001
830 2 3.2 0.8 12.000000000000002
831 2 4.0 0.0 12.000000000000002
832 1 4.0 0.8 11.200000000000001
833 2 3.2 0.0 12.8
834 2 3.2 0.8 13.600000000000001
835 2 4.0 0.0 13.600000000000001
836 1 4.0 0.8 12.8
837 2 3.2 0.0 14.4
838 2 3.2 0.8 15.200000000000001
839 1 4.0 0.0 15.200000000000001
840 2 4.0 0.8 14.4
841 1 3.2 1.6 0.0
842 2 3.2 2.4000000000000004 0.8
843 1 4.0 1.6 0.8
844 2 4.0 2.4000000000000004 0.0
845 1 3.2 1.6 1.6
846 1 3.2 2.4000000000000004 2.4000000000000004
847 1 4.0 1.6 2.4000000000000004
848 1 4.0 2.4000000000000004 1.6
849 1 3.2 1.6 3.2
850 2 3.2 2.4000000000000004 4.0
851 1 4.0 1.6 4.0
852 2 4.0 2.4000000000000004 3.2
853 2 3.2 1.6 4.800000000000001
854 2 3.2 2.4000000000000004 5.6000000000000005
855 1 4.0 1.6 5.6000000000000005
856 2 4.0 2.4000000000000004 4.800000000000001
857 1 3.2 1.6 6.4
858 1 3.2 2.4000000000000004 7.2
859 1 4.0 1.6 7.2
860 2 4.0 2.4000000000000004 6.4
861 2 3.2 1.6 8.0
862 1 3.2 2.4000000000000004 8.8
863 2 4.0 1.6 8.8
864 1 4.0 2.4000000000000004 8.0
865 2 3.2 1.6 9.600000000000001
866 1 3.2 2.4000000000000004 10.400000000000002
867 2 4.0 1.6 10.400000000000002